<?xml version="1.0"?>
<VTKFile type="UnstructuredGrid"  version="0.1"  >
<UnstructuredGrid>
<Piece  NumberOfPoints="81" NumberOfCells="128">
<Points>
<DataArray  type="Float64"  NumberOfComponents="3"  format="ascii">0 0 0  0.125 0 0  0.25 0 0  0.375 0 0  0.5 0 0  0.625 0 0  0.75 0 0  0.875 0 0  1 0 0  0 0.125 0  0.125 0.125 0  0.25 0.125 0  0.375 0.125 0  0.5 0.125 0  0.625 0.125 0  0.75 0.125 0  0.875 0.125 0  1 0.125 0  0 0.25 0  0.125 0.25 0  0.25 0.25 0  0.375 0.25 0  0.5 0.25 0  0.625 0.25 0  0.75 0.25 0  0.875 0.25 0  1 0.25 0  0 0.375 0  0.125 0.375 0  0.25 0.375 0  0.375 0.375 0  0.5 0.375 0  0.625 0.375 0  0.75 0.375 0  0.875 0.375 0  1 0.375 0  0 0.5 0  0.125 0.5 0  0.25 0.5 0  0.375 0.5 0  0.5 0.5 0  0.625 0.5 0  0.75 0.5 0  0.875 0.5 0  1 0.5 0  0 0.625 0  0.125 0.625 0  0.25 0.625 0  0.375 0.625 0  0.5 0.625 0  0.625 0.625 0  0.75 0.625 0  0.875 0.625 0  1 0.625 0  0 0.75 0  0.125 0.75 0  0.25 0.75 0  0.375 0.75 0  0.5 0.75 0  0.625 0.75 0  0.75 0.75 0  0.875 0.75 0  1 0.75 0  0 0.875 0  0.125 0.875 0  0.25 0.875 0  0.375 0.875 0  0.5 0.875 0  0.625 0.875 0  0.75 0.875 0  0.875 0.875 0  1 0.875 0  0 1 0  0.125 1 0  0.25 1 0  0.375 1 0  0.5 1 0  0.625 1 0  0.75 1 0  0.875 1 0  1 1 0  </DataArray>
</Points>
<Cells>
<DataArray  type="UInt32"  Name="connectivity"  format="ascii">0 1 10  0 9 10  1 2 11  1 10 11  2 3 12  2 11 12  3 4 13  3 12 13  4 5 14  4 13 14  5 6 15  5 14 15  6 7 16  6 15 16  7 8 17  7 16 17  9 10 19  9 18 19  10 11 20  10 19 20  11 12 21  11 20 21  12 13 22  12 21 22  13 14 23  13 22 23  14 15 24  14 23 24  15 16 25  15 24 25  16 17 26  16 25 26  18 19 28  18 27 28  19 20 29  19 28 29  20 21 30  20 29 30  21 22 31  21 30 31  22 23 32  22 31 32  23 24 33  23 32 33  24 25 34  24 33 34  25 26 35  25 34 35  27 28 37  27 36 37  28 29 38  28 37 38  29 30 39  29 38 39  30 31 40  30 39 40  31 32 41  31 40 41  32 33 42  32 41 42  33 34 43  33 42 43  34 35 44  34 43 44  36 37 46  36 45 46  37 38 47  37 46 47  38 39 48  38 47 48  39 40 49  39 48 49  40 41 50  40 49 50  41 42 51  41 50 51  42 43 52  42 51 52  43 44 53  43 52 53  45 46 55  45 54 55  46 47 56  46 55 56  47 48 57  47 56 57  48 49 58  48 57 58  49 50 59  49 58 59  50 51 60  50 59 60  51 52 61  51 60 61  52 53 62  52 61 62  54 55 64  54 63 64  55 56 65  55 64 65  56 57 66  56 65 66  57 58 67  57 66 67  58 59 68  58 67 68  59 60 69  59 68 69  60 61 70  60 69 70  61 62 71  61 70 71  63 64 73  63 72 73  64 65 74  64 73 74  65 66 75  65 74 75  66 67 76  66 75 76  67 68 77  67 76 77  68 69 78  68 77 78  69 70 79  69 78 79  70 71 80  70 79 80  </DataArray>
<DataArray  type="UInt32"  Name="offsets"  format="ascii">3 6 9 12 15 18 21 24 27 30 33 36 39 42 45 48 51 54 57 60 63 66 69 72 75 78 81 84 87 90 93 96 99 102 105 108 111 114 117 120 123 126 129 132 135 138 141 144 147 150 153 156 159 162 165 168 171 174 177 180 183 186 189 192 195 198 201 204 207 210 213 216 219 222 225 228 231 234 237 240 243 246 249 252 255 258 261 264 267 270 273 276 279 282 285 288 291 294 297 300 303 306 309 312 315 318 321 324 327 330 333 336 339 342 345 348 351 354 357 360 363 366 369 372 375 378 381 384 </DataArray>
<DataArray  type="UInt8"  Name="types"  format="ascii">5 5 5 5 5 5 5 5 5 5 5 5 5 5 5 5 5 5 5 5 5 5 5 5 5 5 5 5 5 5 5 5 5 5 5 5 5 5 5 5 5 5 5 5 5 5 5 5 5 5 5 5 5 5 5 5 5 5 5 5 5 5 5 5 5 5 5 5 5 5 5 5 5 5 5 5 5 5 5 5 5 5 5 5 5 5 5 5 5 5 5 5 5 5 5 5 5 5 5 5 5 5 5 5 5 5 5 5 5 5 5 5 5 5 5 5 5 5 5 5 5 5 5 5 5 5 5 5 </DataArray>
</Cells>
<PointData  Scalars="f_144"> 
<DataArray  type="Float64"  Name="f_144"  format="ascii">1.0788500156501648e+00  1.1002902355549635e+00  1.1721680488255370e+00  1.2944834554618860e+00  1.4672364554640098e+00  1.6904270488319093e+00  1.9640552355655834e+00  2.2881210156650331e+00  2.6626243891302570e+00  1.0172050364809639e+00  1.0371028566996698e+00  1.1074382702841508e+00  1.2282112772344067e+00  1.3994218775504379e+00  1.6210700712322439e+00  1.8931558582798254e+00  2.2156792386931823e+00  2.5886402124723142e+00  9.2258911604045268e-01  9.4094453657306543e-01  1.0097375504714534e+00  1.1289681577356165e+00  1.2986363583655547e+00  1.5187421523612681e+00  1.7892855397227565e+00  2.1102665204500206e+00  2.4816850945430597e+00  7.9500225432863036e-01  8.1181527517515040e-01  8.7906588938744556e-01  9.9675409696551576e-01  1.1648798979093611e+00  1.3834432922189817e+00  1.6524442798943770e+00  1.9718828609355485e+00  2.3417590353424949e+00  6.3444445134549732e-01  6.4971507250592453e-01  7.1542328703212676e-01  8.3156909492410436e-01  9.9815249618185686e-01  1.2151734908053846e+00  1.4826320787946876e+00  1.8005282601497656e+00  2.1688620348706191e+00  4.4091570709105360e-01  4.5464392856538788e-01  5.1880974340549735e-01  6.3341315161138212e-01  7.9845415318304191e-01  1.0139327481204770e+00  1.2798489364236867e+00  1.5962027180926721e+00  1.9629940931274330e+00  2.1441602156529915e-01  2.2660184335354064e-01  2.8922525850755726e-01  4.0228626702734915e-01  5.6578486891291613e-01  7.7972106416425846e-01  1.0440948527813756e+00  1.3589062347642680e+00  1.7241552101129358e+00  -4.5054605231766187e-02  -3.4411183129617405e-02  2.6669832338306425e-02  1.3818844117200549e-01  3.0014464337147967e-01  5.1253843893672912e-01  7.7536982786775344e-01  1.0886388101645530e+00  1.4523453858271278e+00  -3.3749617330014225e-01  -3.2839515088408611e-01  -2.6885653510225527e-01  -1.5888032595464885e-01  1.5334765587322607e-03  2.1238487243788917e-01  4.7367386168282044e-01  7.8540044429352740e-01  1.1475646202700092e+00  </DataArray> 
</PointData> 
</Piece>
</UnstructuredGrid>
</VTKFile>