<?xml version="1.0"?>
<VTKFile type="UnstructuredGrid"  version="0.1"  >
<UnstructuredGrid>
<Piece  NumberOfPoints="81" NumberOfCells="128">
<Points>
<DataArray  type="Float64"  NumberOfComponents="3"  format="ascii">0 0 0  0.125 0 0  0.25 0 0  0.375 0 0  0.5 0 0  0.625 0 0  0.75 0 0  0.875 0 0  1 0 0  0 0.125 0  0.125 0.125 0  0.25 0.125 0  0.375 0.125 0  0.5 0.125 0  0.625 0.125 0  0.75 0.125 0  0.875 0.125 0  1 0.125 0  0 0.25 0  0.125 0.25 0  0.25 0.25 0  0.375 0.25 0  0.5 0.25 0  0.625 0.25 0  0.75 0.25 0  0.875 0.25 0  1 0.25 0  0 0.375 0  0.125 0.375 0  0.25 0.375 0  0.375 0.375 0  0.5 0.375 0  0.625 0.375 0  0.75 0.375 0  0.875 0.375 0  1 0.375 0  0 0.5 0  0.125 0.5 0  0.25 0.5 0  0.375 0.5 0  0.5 0.5 0  0.625 0.5 0  0.75 0.5 0  0.875 0.5 0  1 0.5 0  0 0.625 0  0.125 0.625 0  0.25 0.625 0  0.375 0.625 0  0.5 0.625 0  0.625 0.625 0  0.75 0.625 0  0.875 0.625 0  1 0.625 0  0 0.75 0  0.125 0.75 0  0.25 0.75 0  0.375 0.75 0  0.5 0.75 0  0.625 0.75 0  0.75 0.75 0  0.875 0.75 0  1 0.75 0  0 0.875 0  0.125 0.875 0  0.25 0.875 0  0.375 0.875 0  0.5 0.875 0  0.625 0.875 0  0.75 0.875 0  0.875 0.875 0  1 0.875 0  0 1 0  0.125 1 0  0.25 1 0  0.375 1 0  0.5 1 0  0.625 1 0  0.75 1 0  0.875 1 0  1 1 0  </DataArray>
</Points>
<Cells>
<DataArray  type="UInt32"  Name="connectivity"  format="ascii">0 1 10  0 9 10  1 2 11  1 10 11  2 3 12  2 11 12  3 4 13  3 12 13  4 5 14  4 13 14  5 6 15  5 14 15  6 7 16  6 15 16  7 8 17  7 16 17  9 10 19  9 18 19  10 11 20  10 19 20  11 12 21  11 20 21  12 13 22  12 21 22  13 14 23  13 22 23  14 15 24  14 23 24  15 16 25  15 24 25  16 17 26  16 25 26  18 19 28  18 27 28  19 20 29  19 28 29  20 21 30  20 29 30  21 22 31  21 30 31  22 23 32  22 31 32  23 24 33  23 32 33  24 25 34  24 33 34  25 26 35  25 34 35  27 28 37  27 36 37  28 29 38  28 37 38  29 30 39  29 38 39  30 31 40  30 39 40  31 32 41  31 40 41  32 33 42  32 41 42  33 34 43  33 42 43  34 35 44  34 43 44  36 37 46  36 45 46  37 38 47  37 46 47  38 39 48  38 47 48  39 40 49  39 48 49  40 41 50  40 49 50  41 42 51  41 50 51  42 43 52  42 51 52  43 44 53  43 52 53  45 46 55  45 54 55  46 47 56  46 55 56  47 48 57  47 56 57  48 49 58  48 57 58  49 50 59  49 58 59  50 51 60  50 59 60  51 52 61  51 60 61  52 53 62  52 61 62  54 55 64  54 63 64  55 56 65  55 64 65  56 57 66  56 65 66  57 58 67  57 66 67  58 59 68  58 67 68  59 60 69  59 68 69  60 61 70  60 69 70  61 62 71  61 70 71  63 64 73  63 72 73  64 65 74  64 73 74  65 66 75  65 74 75  66 67 76  66 75 76  67 68 77  67 76 77  68 69 78  68 77 78  69 70 79  69 78 79  70 71 80  70 79 80  </DataArray>
<DataArray  type="UInt32"  Name="offsets"  format="ascii">3 6 9 12 15 18 21 24 27 30 33 36 39 42 45 48 51 54 57 60 63 66 69 72 75 78 81 84 87 90 93 96 99 102 105 108 111 114 117 120 123 126 129 132 135 138 141 144 147 150 153 156 159 162 165 168 171 174 177 180 183 186 189 192 195 198 201 204 207 210 213 216 219 222 225 228 231 234 237 240 243 246 249 252 255 258 261 264 267 270 273 276 279 282 285 288 291 294 297 300 303 306 309 312 315 318 321 324 327 330 333 336 339 342 345 348 351 354 357 360 363 366 369 372 375 378 381 384 </DataArray>
<DataArray  type="UInt8"  Name="types"  format="ascii">5 5 5 5 5 5 5 5 5 5 5 5 5 5 5 5 5 5 5 5 5 5 5 5 5 5 5 5 5 5 5 5 5 5 5 5 5 5 5 5 5 5 5 5 5 5 5 5 5 5 5 5 5 5 5 5 5 5 5 5 5 5 5 5 5 5 5 5 5 5 5 5 5 5 5 5 5 5 5 5 5 5 5 5 5 5 5 5 5 5 5 5 5 5 5 5 5 5 5 5 5 5 5 5 5 5 5 5 5 5 5 5 5 5 5 5 5 5 5 5 5 5 5 5 5 5 5 5 </DataArray>
</Cells>
<PointData  Scalars="f_161"> 
<DataArray  type="Float64"  Name="f_161"  format="ascii">-4.9501831782752903e-01  -6.0953263582847939e-01  -6.9461617801331288e-01  -7.5026894438202962e-01  -7.7649093493462962e-01  -7.7328214967111264e-01  -7.4064258859147891e-01  -6.7857225169572866e-01  -5.8707113898386143e-01  -4.8836231726321427e-01  -6.3333001779855225e-01  -7.4886694251777364e-01  -8.3497309142087806e-01  -8.9164846450786561e-01  -9.1889306177873631e-01  -9.1670688323349059e-01  -8.8508992887212801e-01  -8.2404219869464868e-01  -5.1687821068506457e-01  -6.9229929375479016e-01  -8.3828960100839944e-01  -9.5484913244589154e-01  -1.0419778880672668e+00  -1.0996758678725254e+00  -1.1279430718616674e+00  -1.1267795000346927e+00  -1.0961851523916013e+00  -5.8056599809307996e-01  -7.8644046369719345e-01  -9.6288415348519030e-01  -1.1098970674570703e+00  -1.2274792056128334e+00  -1.3156305679524798e+00  -1.3743511544760092e+00  -1.4036409651834225e+00  -1.4035000000747191e+00  -6.7942567948726040e-01  -9.1575352762576179e-01  -1.1226505999481464e+00  -1.3001168964544143e+00  -1.4481524171445650e+00  -1.5667571620185989e+00  -1.6559311310765161e+00  -1.7156743243183172e+00  -1.7459867417440016e+00  -8.1345725486760601e-01  -1.0802384855404950e+00  -1.3175889403972674e+00  -1.5255086194379230e+00  -1.7039975226624620e+00  -1.8530556500708837e+00  -1.9726830016631884e+00  -2.0628795774393773e+00  -2.1236453773994493e+00  -9.8266072423411677e-01  -1.2798953374413937e+00  -1.5476991748325535e+00  -1.7860722364075967e+00  -1.9950145221665236e+00  -2.1745260321093336e+00  -2.3246067662360259e+00  -2.4452567245466024e+00  -2.5364759070410621e+00  -1.1870360875867925e+00  -1.5147240833284574e+00  -1.8129813032540050e+00  -2.0818077473634360e+00  -2.3212034156567505e+00  -2.5311683081339478e+00  -2.7117024247950288e+00  -2.8628057656399926e+00  -2.9844783306688401e+00  -1.4265833449256333e+00  -1.7847247232016858e+00  -2.1134353256616212e+00  -2.4127151523054402e+00  -2.6825642031331425e+00  -2.9229824781447276e+00  -3.1339699773401959e+00  -3.3155267007195475e+00  -3.4676526482827823e+00  </DataArray> 
</PointData> 
</Piece>
</UnstructuredGrid>
</VTKFile>