<?xml version="1.0"?>
<VTKFile type="UnstructuredGrid"  version="0.1"  >
<UnstructuredGrid>
<Piece  NumberOfPoints="81" NumberOfCells="128">
<Points>
<DataArray  type="Float64"  NumberOfComponents="3"  format="ascii">0 0 0  0.125 0 0  0.25 0 0  0.375 0 0  0.5 0 0  0.625 0 0  0.75 0 0  0.875 0 0  1 0 0  0 0.125 0  0.125 0.125 0  0.25 0.125 0  0.375 0.125 0  0.5 0.125 0  0.625 0.125 0  0.75 0.125 0  0.875 0.125 0  1 0.125 0  0 0.25 0  0.125 0.25 0  0.25 0.25 0  0.375 0.25 0  0.5 0.25 0  0.625 0.25 0  0.75 0.25 0  0.875 0.25 0  1 0.25 0  0 0.375 0  0.125 0.375 0  0.25 0.375 0  0.375 0.375 0  0.5 0.375 0  0.625 0.375 0  0.75 0.375 0  0.875 0.375 0  1 0.375 0  0 0.5 0  0.125 0.5 0  0.25 0.5 0  0.375 0.5 0  0.5 0.5 0  0.625 0.5 0  0.75 0.5 0  0.875 0.5 0  1 0.5 0  0 0.625 0  0.125 0.625 0  0.25 0.625 0  0.375 0.625 0  0.5 0.625 0  0.625 0.625 0  0.75 0.625 0  0.875 0.625 0  1 0.625 0  0 0.75 0  0.125 0.75 0  0.25 0.75 0  0.375 0.75 0  0.5 0.75 0  0.625 0.75 0  0.75 0.75 0  0.875 0.75 0  1 0.75 0  0 0.875 0  0.125 0.875 0  0.25 0.875 0  0.375 0.875 0  0.5 0.875 0  0.625 0.875 0  0.75 0.875 0  0.875 0.875 0  1 0.875 0  0 1 0  0.125 1 0  0.25 1 0  0.375 1 0  0.5 1 0  0.625 1 0  0.75 1 0  0.875 1 0  1 1 0  </DataArray>
</Points>
<Cells>
<DataArray  type="UInt32"  Name="connectivity"  format="ascii">0 1 10  0 9 10  1 2 11  1 10 11  2 3 12  2 11 12  3 4 13  3 12 13  4 5 14  4 13 14  5 6 15  5 14 15  6 7 16  6 15 16  7 8 17  7 16 17  9 10 19  9 18 19  10 11 20  10 19 20  11 12 21  11 20 21  12 13 22  12 21 22  13 14 23  13 22 23  14 15 24  14 23 24  15 16 25  15 24 25  16 17 26  16 25 26  18 19 28  18 27 28  19 20 29  19 28 29  20 21 30  20 29 30  21 22 31  21 30 31  22 23 32  22 31 32  23 24 33  23 32 33  24 25 34  24 33 34  25 26 35  25 34 35  27 28 37  27 36 37  28 29 38  28 37 38  29 30 39  29 38 39  30 31 40  30 39 40  31 32 41  31 40 41  32 33 42  32 41 42  33 34 43  33 42 43  34 35 44  34 43 44  36 37 46  36 45 46  37 38 47  37 46 47  38 39 48  38 47 48  39 40 49  39 48 49  40 41 50  40 49 50  41 42 51  41 50 51  42 43 52  42 51 52  43 44 53  43 52 53  45 46 55  45 54 55  46 47 56  46 55 56  47 48 57  47 56 57  48 49 58  48 57 58  49 50 59  49 58 59  50 51 60  50 59 60  51 52 61  51 60 61  52 53 62  52 61 62  54 55 64  54 63 64  55 56 65  55 64 65  56 57 66  56 65 66  57 58 67  57 66 67  58 59 68  58 67 68  59 60 69  59 68 69  60 61 70  60 69 70  61 62 71  61 70 71  63 64 73  63 72 73  64 65 74  64 73 74  65 66 75  65 74 75  66 67 76  66 75 76  67 68 77  67 76 77  68 69 78  68 77 78  69 70 79  69 78 79  70 71 80  70 79 80  </DataArray>
<DataArray  type="UInt32"  Name="offsets"  format="ascii">3 6 9 12 15 18 21 24 27 30 33 36 39 42 45 48 51 54 57 60 63 66 69 72 75 78 81 84 87 90 93 96 99 102 105 108 111 114 117 120 123 126 129 132 135 138 141 144 147 150 153 156 159 162 165 168 171 174 177 180 183 186 189 192 195 198 201 204 207 210 213 216 219 222 225 228 231 234 237 240 243 246 249 252 255 258 261 264 267 270 273 276 279 282 285 288 291 294 297 300 303 306 309 312 315 318 321 324 327 330 333 336 339 342 345 348 351 354 357 360 363 366 369 372 375 378 381 384 </DataArray>
<DataArray  type="UInt8"  Name="types"  format="ascii">5 5 5 5 5 5 5 5 5 5 5 5 5 5 5 5 5 5 5 5 5 5 5 5 5 5 5 5 5 5 5 5 5 5 5 5 5 5 5 5 5 5 5 5 5 5 5 5 5 5 5 5 5 5 5 5 5 5 5 5 5 5 5 5 5 5 5 5 5 5 5 5 5 5 5 5 5 5 5 5 5 5 5 5 5 5 5 5 5 5 5 5 5 5 5 5 5 5 5 5 5 5 5 5 5 5 5 5 5 5 5 5 5 5 5 5 5 5 5 5 5 5 5 5 5 5 5 5 </DataArray>
</Cells>
<PointData  Scalars="f_59"> 
<DataArray  type="Float64"  Name="f_59"  format="ascii">-1.8831346277741998e+00  -1.9293749225481471e+00  -1.9362885902804530e+00  -1.9038756309711171e+00  -1.8321360446201400e+00  -1.7210698312275210e+00  -1.5706769907932605e+00  -1.3809575233173585e+00  -1.1519114287998151e+00  -1.9492242488127121e+00  -2.0285999826402059e+00  -2.0686490894260583e+00  -2.0693715691702685e+00  -2.0307674218728375e+00  -1.9528366475337651e+00  -1.8355792461530511e+00  -1.6789952177306957e+00  -1.4830845622666988e+00  -2.0145643451014670e+00  -2.1270755179825076e+00  -2.2002600638219061e+00  -2.2341179826196624e+00  -2.2286492743757780e+00  -2.1838539390902518e+00  -2.0997319767630840e+00  -1.9762833873942753e+00  -1.8135081709838250e+00  -2.0791549166404639e+00  -2.2248015285750502e+00  -2.3311215134679957e+00  -2.3981148713192990e+00  -2.4257816021289607e+00  -2.4141217058969811e+00  -2.3631351826233598e+00  -2.2728220323080977e+00  -2.1431822549511943e+00  -2.1429959634297031e+00  -2.3217780144178355e+00  -2.4612334383643271e+00  -2.5613622352691774e+00  -2.6221644051323860e+00  -2.6436399479539530e+00  -2.6257888637338778e+00  -2.5686111524721618e+00  -2.4721068141688045e+00  -2.2060874854691845e+00  -2.4180049755108635e+00  -2.5905958385109016e+00  -2.7238600744692985e+00  -2.8177976833860536e+00  -2.8724086652611671e+00  -2.8876930200946385e+00  -2.8636507478864686e+00  -2.8002818486366583e+00  -2.2684294827589091e+00  -2.5134824118541346e+00  -2.7192087139077188e+00  -2.8856083889196622e+00  -3.0126814368899635e+00  -3.1004278578186240e+00  -3.1488476517056418e+00  -3.1579408185510180e+00  -3.1277073583547543e+00  -2.3300219552988755e+00  -2.6082103234476479e+00  -2.8470720645547787e+00  -3.0466071786202682e+00  -3.2068156656441156e+00  -3.3276975256263217e+00  -3.4092527585668870e+00  -3.4514813644658102e+00  -3.4543833433230922e+00  -2.3908649030890845e+00  -2.7021887102914035e+00  -2.9741858904520808e+00  -3.2068564435711164e+00  -3.4002003696485108e+00  -3.5542176686842635e+00  -3.6689083406783749e+00  -3.7442723856308442e+00  -3.7803098035416731e+00  </DataArray> 
</PointData> 
</Piece>
</UnstructuredGrid>
</VTKFile>