<?xml version="1.0"?>
<VTKFile type="UnstructuredGrid"  version="0.1"  >
<UnstructuredGrid>
<Piece  NumberOfPoints="81" NumberOfCells="128">
<Points>
<DataArray  type="Float64"  NumberOfComponents="3"  format="ascii">0 0 0  0.125 0 0  0.25 0 0  0.375 0 0  0.5 0 0  0.625 0 0  0.75 0 0  0.875 0 0  1 0 0  0 0.125 0  0.125 0.125 0  0.25 0.125 0  0.375 0.125 0  0.5 0.125 0  0.625 0.125 0  0.75 0.125 0  0.875 0.125 0  1 0.125 0  0 0.25 0  0.125 0.25 0  0.25 0.25 0  0.375 0.25 0  0.5 0.25 0  0.625 0.25 0  0.75 0.25 0  0.875 0.25 0  1 0.25 0  0 0.375 0  0.125 0.375 0  0.25 0.375 0  0.375 0.375 0  0.5 0.375 0  0.625 0.375 0  0.75 0.375 0  0.875 0.375 0  1 0.375 0  0 0.5 0  0.125 0.5 0  0.25 0.5 0  0.375 0.5 0  0.5 0.5 0  0.625 0.5 0  0.75 0.5 0  0.875 0.5 0  1 0.5 0  0 0.625 0  0.125 0.625 0  0.25 0.625 0  0.375 0.625 0  0.5 0.625 0  0.625 0.625 0  0.75 0.625 0  0.875 0.625 0  1 0.625 0  0 0.75 0  0.125 0.75 0  0.25 0.75 0  0.375 0.75 0  0.5 0.75 0  0.625 0.75 0  0.75 0.75 0  0.875 0.75 0  1 0.75 0  0 0.875 0  0.125 0.875 0  0.25 0.875 0  0.375 0.875 0  0.5 0.875 0  0.625 0.875 0  0.75 0.875 0  0.875 0.875 0  1 0.875 0  0 1 0  0.125 1 0  0.25 1 0  0.375 1 0  0.5 1 0  0.625 1 0  0.75 1 0  0.875 1 0  1 1 0  </DataArray>
</Points>
<Cells>
<DataArray  type="UInt32"  Name="connectivity"  format="ascii">0 1 10  0 9 10  1 2 11  1 10 11  2 3 12  2 11 12  3 4 13  3 12 13  4 5 14  4 13 14  5 6 15  5 14 15  6 7 16  6 15 16  7 8 17  7 16 17  9 10 19  9 18 19  10 11 20  10 19 20  11 12 21  11 20 21  12 13 22  12 21 22  13 14 23  13 22 23  14 15 24  14 23 24  15 16 25  15 24 25  16 17 26  16 25 26  18 19 28  18 27 28  19 20 29  19 28 29  20 21 30  20 29 30  21 22 31  21 30 31  22 23 32  22 31 32  23 24 33  23 32 33  24 25 34  24 33 34  25 26 35  25 34 35  27 28 37  27 36 37  28 29 38  28 37 38  29 30 39  29 38 39  30 31 40  30 39 40  31 32 41  31 40 41  32 33 42  32 41 42  33 34 43  33 42 43  34 35 44  34 43 44  36 37 46  36 45 46  37 38 47  37 46 47  38 39 48  38 47 48  39 40 49  39 48 49  40 41 50  40 49 50  41 42 51  41 50 51  42 43 52  42 51 52  43 44 53  43 52 53  45 46 55  45 54 55  46 47 56  46 55 56  47 48 57  47 56 57  48 49 58  48 57 58  49 50 59  49 58 59  50 51 60  50 59 60  51 52 61  51 60 61  52 53 62  52 61 62  54 55 64  54 63 64  55 56 65  55 64 65  56 57 66  56 65 66  57 58 67  57 66 67  58 59 68  58 67 68  59 60 69  59 68 69  60 61 70  60 69 70  61 62 71  61 70 71  63 64 73  63 72 73  64 65 74  64 73 74  65 66 75  65 74 75  66 67 76  66 75 76  67 68 77  67 76 77  68 69 78  68 77 78  69 70 79  69 78 79  70 71 80  70 79 80  </DataArray>
<DataArray  type="UInt32"  Name="offsets"  format="ascii">3 6 9 12 15 18 21 24 27 30 33 36 39 42 45 48 51 54 57 60 63 66 69 72 75 78 81 84 87 90 93 96 99 102 105 108 111 114 117 120 123 126 129 132 135 138 141 144 147 150 153 156 159 162 165 168 171 174 177 180 183 186 189 192 195 198 201 204 207 210 213 216 219 222 225 228 231 234 237 240 243 246 249 252 255 258 261 264 267 270 273 276 279 282 285 288 291 294 297 300 303 306 309 312 315 318 321 324 327 330 333 336 339 342 345 348 351 354 357 360 363 366 369 372 375 378 381 384 </DataArray>
<DataArray  type="UInt8"  Name="types"  format="ascii">5 5 5 5 5 5 5 5 5 5 5 5 5 5 5 5 5 5 5 5 5 5 5 5 5 5 5 5 5 5 5 5 5 5 5 5 5 5 5 5 5 5 5 5 5 5 5 5 5 5 5 5 5 5 5 5 5 5 5 5 5 5 5 5 5 5 5 5 5 5 5 5 5 5 5 5 5 5 5 5 5 5 5 5 5 5 5 5 5 5 5 5 5 5 5 5 5 5 5 5 5 5 5 5 5 5 5 5 5 5 5 5 5 5 5 5 5 5 5 5 5 5 5 5 5 5 5 5 </DataArray>
</Cells>
<PointData  Scalars="f_25"> 
<DataArray  type="Float64"  Name="f_25"  format="ascii">-1.0851199564990102e-01  -1.9506493590393248e-02  1.2909650463871877e-01  3.3729699903743504e-01  6.0509498960575558e-01  9.3249047634368032e-01  1.3194834592512092e+00  1.7660739383283426e+00  2.2722619135750799e+00  1.0938477027664459e-01  1.8205650518957231e-01  3.1432573627210431e-01  5.0619246352424052e-01  7.5765668694598087e-01  1.0687184065373254e+00  1.4393776222982742e+00  1.8696343342288277e+00  2.3594885423289855e+00  2.8100304025142775e-01  3.3734100801777539e-01  4.5327647195372739e-01  6.2880943205928352e-01  8.6393988833444380e-01  1.1586678407792086e+00  1.5129932893935774e+00  1.9269162341775510e+00  2.4004366751311284e+00  4.0634281427444841e-01  4.4634701489421602e-01  5.4594871168358794e-01  7.0514790464256405e-01  9.2394459377114457e-01  1.2023387790693292e+00  1.5403304605371180e+00  1.9379196381745114e+00  2.3951063119815097e+00  4.8540409234570647e-01  5.0907452581889401e-01  5.9234245546168596e-01  7.3520788127408210e-01  9.3767080325608265e-01  1.1997312214076872e+00  1.5213891357288958e+00  1.9026445462197095e+00  2.3434974528801273e+00  5.1818687446520206e-01  5.2552354079180963e-01  5.9245770328802139e-01  7.1898936195383767e-01  9.0511851678925814e-01  1.1508451677942828e+00  1.4561693149689114e+00  1.8210909583131449e+00  2.2456100978269831e+00  5.0469116063293529e-01  4.9569405981296277e-01  5.4629445516259456e-01  6.5649234668183076e-01  8.2628773437067116e-01  1.0556806182291161e+00  1.3446709982571647e+00  1.6932588744548183e+00  2.1014442468220760e+00  4.4491695084890592e-01  4.1958608288235355e-01  4.5385271108540537e-01  5.4771683545806149e-01  7.0117845600032180e-01  9.1423757271218653e-01  1.1868941855936552e+00  1.5191482946447288e+00  1.9109998998654065e+00  3.3886424511311408e-01  2.9719960999998185e-01  3.1513247105645359e-01  3.9266282828252996e-01  5.2979068167821008e-01  7.2651603124349506e-01  9.8283887697838379e-01  1.2987592188828772e+00  1.6742770569569747e+00  </DataArray> 
</PointData> 
</Piece>
</UnstructuredGrid>
</VTKFile>