<?xml version="1.0"?>
<VTKFile type="UnstructuredGrid"  version="0.1"  >
	<UnstructuredGrid>
		<Piece  NumberOfPoints="81" NumberOfCells="128">
			<Points>
				<DataArray  type="Float64"  NumberOfComponents="3"  format="ascii">0 0 0  0.125 0 0  0.25 0 0  0.375 0 0  0.5 0 0  0.625 0 0  0.75 0 0  0.875 0 0  1 0 0  0 0.125 0  0.125 0.125 0  0.25 0.125 0  0.375 0.125 0  0.5 0.125 0  0.625 0.125 0  0.75 0.125 0  0.875 0.125 0  1 0.125 0  0 0.25 0  0.125 0.25 0  0.25 0.25 0  0.375 0.25 0  0.5 0.25 0  0.625 0.25 0  0.75 0.25 0  0.875 0.25 0  1 0.25 0  0 0.375 0  0.125 0.375 0  0.25 0.375 0  0.375 0.375 0  0.5 0.375 0  0.625 0.375 0  0.75 0.375 0  0.875 0.375 0  1 0.375 0  0 0.5 0  0.125 0.5 0  0.25 0.5 0  0.375 0.5 0  0.5 0.5 0  0.625 0.5 0  0.75 0.5 0  0.875 0.5 0  1 0.5 0  0 0.625 0  0.125 0.625 0  0.25 0.625 0  0.375 0.625 0  0.5 0.625 0  0.625 0.625 0  0.75 0.625 0  0.875 0.625 0  1 0.625 0  0 0.75 0  0.125 0.75 0  0.25 0.75 0  0.375 0.75 0  0.5 0.75 0  0.625 0.75 0  0.75 0.75 0  0.875 0.75 0  1 0.75 0  0 0.875 0  0.125 0.875 0  0.25 0.875 0  0.375 0.875 0  0.5 0.875 0  0.625 0.875 0  0.75 0.875 0  0.875 0.875 0  1 0.875 0  0 1 0  0.125 1 0  0.25 1 0  0.375 1 0  0.5 1 0  0.625 1 0  0.75 1 0  0.875 1 0  1 1 0  </DataArray>
			</Points>
			<Cells>
				<DataArray  type="UInt32"  Name="connectivity"  format="ascii">0 1 10  0 9 10  1 2 11  1 10 11  2 3 12  2 11 12  3 4 13  3 12 13  4 5 14  4 13 14  5 6 15  5 14 15  6 7 16  6 15 16  7 8 17  7 16 17  9 10 19  9 18 19  10 11 20  10 19 20  11 12 21  11 20 21  12 13 22  12 21 22  13 14 23  13 22 23  14 15 24  14 23 24  15 16 25  15 24 25  16 17 26  16 25 26  18 19 28  18 27 28  19 20 29  19 28 29  20 21 30  20 29 30  21 22 31  21 30 31  22 23 32  22 31 32  23 24 33  23 32 33  24 25 34  24 33 34  25 26 35  25 34 35  27 28 37  27 36 37  28 29 38  28 37 38  29 30 39  29 38 39  30 31 40  30 39 40  31 32 41  31 40 41  32 33 42  32 41 42  33 34 43  33 42 43  34 35 44  34 43 44  36 37 46  36 45 46  37 38 47  37 46 47  38 39 48  38 47 48  39 40 49  39 48 49  40 41 50  40 49 50  41 42 51  41 50 51  42 43 52  42 51 52  43 44 53  43 52 53  45 46 55  45 54 55  46 47 56  46 55 56  47 48 57  47 56 57  48 49 58  48 57 58  49 50 59  49 58 59  50 51 60  50 59 60  51 52 61  51 60 61  52 53 62  52 61 62  54 55 64  54 63 64  55 56 65  55 64 65  56 57 66  56 65 66  57 58 67  57 66 67  58 59 68  58 67 68  59 60 69  59 68 69  60 61 70  60 69 70  61 62 71  61 70 71  63 64 73  63 72 73  64 65 74  64 73 74  65 66 75  65 74 75  66 67 76  66 75 76  67 68 77  67 76 77  68 69 78  68 77 78  69 70 79  69 78 79  70 71 80  70 79 80  </DataArray>
				<DataArray  type="UInt32"  Name="offsets"  format="ascii">3 6 9 12 15 18 21 24 27 30 33 36 39 42 45 48 51 54 57 60 63 66 69 72 75 78 81 84 87 90 93 96 99 102 105 108 111 114 117 120 123 126 129 132 135 138 141 144 147 150 153 156 159 162 165 168 171 174 177 180 183 186 189 192 195 198 201 204 207 210 213 216 219 222 225 228 231 234 237 240 243 246 249 252 255 258 261 264 267 270 273 276 279 282 285 288 291 294 297 300 303 306 309 312 315 318 321 324 327 330 333 336 339 342 345 348 351 354 357 360 363 366 369 372 375 378 381 384 </DataArray>
				<DataArray  type="UInt8"  Name="types"  format="ascii">5 5 5 5 5 5 5 5 5 5 5 5 5 5 5 5 5 5 5 5 5 5 5 5 5 5 5 5 5 5 5 5 5 5 5 5 5 5 5 5 5 5 5 5 5 5 5 5 5 5 5 5 5 5 5 5 5 5 5 5 5 5 5 5 5 5 5 5 5 5 5 5 5 5 5 5 5 5 5 5 5 5 5 5 5 5 5 5 5 5 5 5 5 5 5 5 5 5 5 5 5 5 5 5 5 5 5 5 5 5 5 5 5 5 5 5 5 5 5 5 5 5 5 5 5 5 5 5 </DataArray>
			</Cells>
			<PointData  Scalars="f_8"> 
				<DataArray  type="Float64"  Name="f_8"  format="ascii">2.8233097716594197e-01  1.9318487699607850e-01  8.1531444290785779e-02  -5.2629320949936192e-02  -2.0929741872608748e-01  -3.8847284903766804e-01  -5.9015561188467780e-01  -8.1434570726711675e-01  -1.0610431351849852e+00  3.9510105598253675e-01  2.9538402685694126e-01  1.7315966519591663e-01  2.8427970999462711e-02  -1.3881105573242053e-01  -3.2855741499973296e-01  -5.4081110680247468e-01  -7.7557213114064583e-01  -1.0328404880142461e+00  6.1172074241768293e-01  5.0143278433635541e-01  3.6863749371959892e-01  2.1333487056741296e-01  3.5524914879797746e-02  -1.6479237334324665e-01  -3.8761699410172029e-01  -6.3294894739562324e-01  -9.0078823322495549e-01  9.3219003647138043e-01  8.1133114943432105e-01  6.6796492986183253e-01  5.0209137775391455e-01  3.1371049311056737e-01  1.0282227593179095e-01  -1.3057327378241465e-01  -3.8647615603204932e-01  -6.6488637081711344e-01  1.3565089381436293e+00  1.2250791221508379e+00  1.0711419736226171e+00  8.9469749255896747e-01  6.9574567895988826e-01  4.7428653282537991e-01  2.3032005415544235e-01  -3.6153757049924344e-02  -3.2513490079072038e-01  1.8846774474344294e+00  1.7426767024859060e+00  1.5781686250019531e+00  1.3911532149825716e+00  1.1816304724277604e+00  9.4960039733752033e-01  6.9506298971185076e-01  4.1801824955075217e-01  1.1846617685422434e-01  2.5166955643437809e+00  2.3641238904395254e+00  2.1890448839998409e+00  1.9914585450247271e+00  1.7713648735141840e+00  1.5287638694682122e+00  1.2636555328868107e+00  9.7603986376998009e-01  6.6591686211772050e-01  3.2525632888716838e+00  3.0894206860116964e+00  2.9037707506162795e+00  2.6956134826854345e+00  2.4649488822191592e+00  2.2117769492174553e+00  1.9360976836803216e+00  1.6379110856077592e+00  1.3172171549997678e+00  4.0922806210181379e+00  3.9185670892024191e+00  3.7223462248512704e+00  3.5036180279646931e+00  3.2623824985426864e+00  2.9986396365852501e+00  2.7123894420923849e+00  2.4036319150640901e+00  2.0723670555003664e+00  </DataArray> 
			</PointData> 	
		</Piece>
	</UnstructuredGrid>
</VTKFile>