<?xml version="1.0"?>
<VTKFile type="UnstructuredGrid"  version="0.1"  >
<UnstructuredGrid>
<Piece  NumberOfPoints="81" NumberOfCells="128">
<Points>
<DataArray  type="Float64"  NumberOfComponents="3"  format="ascii">0 0 0  0.125 0 0  0.25 0 0  0.375 0 0  0.5 0 0  0.625 0 0  0.75 0 0  0.875 0 0  1 0 0  0 0.125 0  0.125 0.125 0  0.25 0.125 0  0.375 0.125 0  0.5 0.125 0  0.625 0.125 0  0.75 0.125 0  0.875 0.125 0  1 0.125 0  0 0.25 0  0.125 0.25 0  0.25 0.25 0  0.375 0.25 0  0.5 0.25 0  0.625 0.25 0  0.75 0.25 0  0.875 0.25 0  1 0.25 0  0 0.375 0  0.125 0.375 0  0.25 0.375 0  0.375 0.375 0  0.5 0.375 0  0.625 0.375 0  0.75 0.375 0  0.875 0.375 0  1 0.375 0  0 0.5 0  0.125 0.5 0  0.25 0.5 0  0.375 0.5 0  0.5 0.5 0  0.625 0.5 0  0.75 0.5 0  0.875 0.5 0  1 0.5 0  0 0.625 0  0.125 0.625 0  0.25 0.625 0  0.375 0.625 0  0.5 0.625 0  0.625 0.625 0  0.75 0.625 0  0.875 0.625 0  1 0.625 0  0 0.75 0  0.125 0.75 0  0.25 0.75 0  0.375 0.75 0  0.5 0.75 0  0.625 0.75 0  0.75 0.75 0  0.875 0.75 0  1 0.75 0  0 0.875 0  0.125 0.875 0  0.25 0.875 0  0.375 0.875 0  0.5 0.875 0  0.625 0.875 0  0.75 0.875 0  0.875 0.875 0  1 0.875 0  0 1 0  0.125 1 0  0.25 1 0  0.375 1 0  0.5 1 0  0.625 1 0  0.75 1 0  0.875 1 0  1 1 0  </DataArray>
</Points>
<Cells>
<DataArray  type="UInt32"  Name="connectivity"  format="ascii">0 1 10  0 9 10  1 2 11  1 10 11  2 3 12  2 11 12  3 4 13  3 12 13  4 5 14  4 13 14  5 6 15  5 14 15  6 7 16  6 15 16  7 8 17  7 16 17  9 10 19  9 18 19  10 11 20  10 19 20  11 12 21  11 20 21  12 13 22  12 21 22  13 14 23  13 22 23  14 15 24  14 23 24  15 16 25  15 24 25  16 17 26  16 25 26  18 19 28  18 27 28  19 20 29  19 28 29  20 21 30  20 29 30  21 22 31  21 30 31  22 23 32  22 31 32  23 24 33  23 32 33  24 25 34  24 33 34  25 26 35  25 34 35  27 28 37  27 36 37  28 29 38  28 37 38  29 30 39  29 38 39  30 31 40  30 39 40  31 32 41  31 40 41  32 33 42  32 41 42  33 34 43  33 42 43  34 35 44  34 43 44  36 37 46  36 45 46  37 38 47  37 46 47  38 39 48  38 47 48  39 40 49  39 48 49  40 41 50  40 49 50  41 42 51  41 50 51  42 43 52  42 51 52  43 44 53  43 52 53  45 46 55  45 54 55  46 47 56  46 55 56  47 48 57  47 56 57  48 49 58  48 57 58  49 50 59  49 58 59  50 51 60  50 59 60  51 52 61  51 60 61  52 53 62  52 61 62  54 55 64  54 63 64  55 56 65  55 64 65  56 57 66  56 65 66  57 58 67  57 66 67  58 59 68  58 67 68  59 60 69  59 68 69  60 61 70  60 69 70  61 62 71  61 70 71  63 64 73  63 72 73  64 65 74  64 73 74  65 66 75  65 74 75  66 67 76  66 75 76  67 68 77  67 76 77  68 69 78  68 77 78  69 70 79  69 78 79  70 71 80  70 79 80  </DataArray>
<DataArray  type="UInt32"  Name="offsets"  format="ascii">3 6 9 12 15 18 21 24 27 30 33 36 39 42 45 48 51 54 57 60 63 66 69 72 75 78 81 84 87 90 93 96 99 102 105 108 111 114 117 120 123 126 129 132 135 138 141 144 147 150 153 156 159 162 165 168 171 174 177 180 183 186 189 192 195 198 201 204 207 210 213 216 219 222 225 228 231 234 237 240 243 246 249 252 255 258 261 264 267 270 273 276 279 282 285 288 291 294 297 300 303 306 309 312 315 318 321 324 327 330 333 336 339 342 345 348 351 354 357 360 363 366 369 372 375 378 381 384 </DataArray>
<DataArray  type="UInt8"  Name="types"  format="ascii">5 5 5 5 5 5 5 5 5 5 5 5 5 5 5 5 5 5 5 5 5 5 5 5 5 5 5 5 5 5 5 5 5 5 5 5 5 5 5 5 5 5 5 5 5 5 5 5 5 5 5 5 5 5 5 5 5 5 5 5 5 5 5 5 5 5 5 5 5 5 5 5 5 5 5 5 5 5 5 5 5 5 5 5 5 5 5 5 5 5 5 5 5 5 5 5 5 5 5 5 5 5 5 5 5 5 5 5 5 5 5 5 5 5 5 5 5 5 5 5 5 5 5 5 5 5 5 5 </DataArray>
</Cells>
<PointData  Scalars="f_93"> 
<DataArray  type="Float64"  Name="f_93"  format="ascii">-7.4736205820785606e-02  -1.6359055472256545e-01  -2.7601715091966306e-01  -4.1201599441207853e-01  -5.7158708519981172e-01  -7.5473042328286288e-01  -9.6144600866123175e-01  -1.1917338413349183e+00  -1.4455939213039228e+00  6.7507927247318605e-02  -2.3982420145003250e-02  -1.3904501483264289e-01  -2.7767985681560037e-01  -4.3988694609387557e-01  -6.2566628266746871e-01  -8.3501786653637944e-01  -1.0679416977006082e+00  -1.3244377761601549e+00  2.2803548445870417e-01  1.3390913857584028e-01  1.6210545397658635e-02  -1.2506029507584082e-01  -2.8990338284465805e-01  -4.7831871790879305e-01  -6.9030630026824591e-01  -9.2586612992301676e-01  -1.1849982068731055e+00  4.0684646581337114e-01  3.1008412143996517e-01  1.8974952977124152e-01  4.5842690807200048e-02  -1.2163639545215923e-01  -3.1268772900683633e-01  -5.2731130985683128e-01  -7.6550713800214409e-01  -1.0272752134427749e+00  6.0394087131131946e-01  5.0454252844737146e-01  3.8157193828810571e-01  2.3502910083352230e-01  6.4914016083620935e-02  -1.2877331596159816e-01  -3.4603289530213510e-01  -5.8686472193799000e-01  -8.5126879586916271e-01  8.1931870095254899e-01  7.1728435959805914e-01  5.9167777094825125e-01  4.4249893500312576e-01  2.6974785176268240e-01  7.3424521226921335e-02  -1.4647105660415766e-01  -3.8993888173055447e-01  -6.5697895415226937e-01  1.0529799547370602e+00  9.4830961489202803e-01  8.2006702775167817e-01  6.6825219331601060e-01  4.9286511158502533e-01  2.9390578255872229e-01  7.1374206237101182e-02  -1.7472961737983772e-01  -4.4440568829209448e-01  1.3049246326648523e+00  1.1976182943292786e+00  1.0667397086983865e+00  9.1228887577217710e-01  7.3426579555064964e-01  5.3267046803380447e-01  3.0750289322164148e-01  5.8763071114160466e-02  -2.1354899828863838e-01  1.5751527347359262e+00  1.4652103979098103e+00  1.3316958137883761e+00  1.1746089823716246e+00  9.9394990365955516e-01  7.8971857765216802e-01  5.6191500434946273e-01  3.1053918375144007e-01  3.5591115858099265e-02  </DataArray> 
</PointData> 
</Piece>
</UnstructuredGrid>
</VTKFile>