<?xml version="1.0"?>
<VTKFile type="UnstructuredGrid"  version="0.1"  >
<UnstructuredGrid>
<Piece  NumberOfPoints="81" NumberOfCells="128">
<Points>
<DataArray  type="Float64"  NumberOfComponents="3"  format="ascii">0 0 0  0.125 0 0  0.25 0 0  0.375 0 0  0.5 0 0  0.625 0 0  0.75 0 0  0.875 0 0  1 0 0  0 0.125 0  0.125 0.125 0  0.25 0.125 0  0.375 0.125 0  0.5 0.125 0  0.625 0.125 0  0.75 0.125 0  0.875 0.125 0  1 0.125 0  0 0.25 0  0.125 0.25 0  0.25 0.25 0  0.375 0.25 0  0.5 0.25 0  0.625 0.25 0  0.75 0.25 0  0.875 0.25 0  1 0.25 0  0 0.375 0  0.125 0.375 0  0.25 0.375 0  0.375 0.375 0  0.5 0.375 0  0.625 0.375 0  0.75 0.375 0  0.875 0.375 0  1 0.375 0  0 0.5 0  0.125 0.5 0  0.25 0.5 0  0.375 0.5 0  0.5 0.5 0  0.625 0.5 0  0.75 0.5 0  0.875 0.5 0  1 0.5 0  0 0.625 0  0.125 0.625 0  0.25 0.625 0  0.375 0.625 0  0.5 0.625 0  0.625 0.625 0  0.75 0.625 0  0.875 0.625 0  1 0.625 0  0 0.75 0  0.125 0.75 0  0.25 0.75 0  0.375 0.75 0  0.5 0.75 0  0.625 0.75 0  0.75 0.75 0  0.875 0.75 0  1 0.75 0  0 0.875 0  0.125 0.875 0  0.25 0.875 0  0.375 0.875 0  0.5 0.875 0  0.625 0.875 0  0.75 0.875 0  0.875 0.875 0  1 0.875 0  0 1 0  0.125 1 0  0.25 1 0  0.375 1 0  0.5 1 0  0.625 1 0  0.75 1 0  0.875 1 0  1 1 0  </DataArray>
</Points>
<Cells>
<DataArray  type="UInt32"  Name="connectivity"  format="ascii">0 1 10  0 9 10  1 2 11  1 10 11  2 3 12  2 11 12  3 4 13  3 12 13  4 5 14  4 13 14  5 6 15  5 14 15  6 7 16  6 15 16  7 8 17  7 16 17  9 10 19  9 18 19  10 11 20  10 19 20  11 12 21  11 20 21  12 13 22  12 21 22  13 14 23  13 22 23  14 15 24  14 23 24  15 16 25  15 24 25  16 17 26  16 25 26  18 19 28  18 27 28  19 20 29  19 28 29  20 21 30  20 29 30  21 22 31  21 30 31  22 23 32  22 31 32  23 24 33  23 32 33  24 25 34  24 33 34  25 26 35  25 34 35  27 28 37  27 36 37  28 29 38  28 37 38  29 30 39  29 38 39  30 31 40  30 39 40  31 32 41  31 40 41  32 33 42  32 41 42  33 34 43  33 42 43  34 35 44  34 43 44  36 37 46  36 45 46  37 38 47  37 46 47  38 39 48  38 47 48  39 40 49  39 48 49  40 41 50  40 49 50  41 42 51  41 50 51  42 43 52  42 51 52  43 44 53  43 52 53  45 46 55  45 54 55  46 47 56  46 55 56  47 48 57  47 56 57  48 49 58  48 57 58  49 50 59  49 58 59  50 51 60  50 59 60  51 52 61  51 60 61  52 53 62  52 61 62  54 55 64  54 63 64  55 56 65  55 64 65  56 57 66  56 65 66  57 58 67  57 66 67  58 59 68  58 67 68  59 60 69  59 68 69  60 61 70  60 69 70  61 62 71  61 70 71  63 64 73  63 72 73  64 65 74  64 73 74  65 66 75  65 74 75  66 67 76  66 75 76  67 68 77  67 76 77  68 69 78  68 77 78  69 70 79  69 78 79  70 71 80  70 79 80  </DataArray>
<DataArray  type="UInt32"  Name="offsets"  format="ascii">3 6 9 12 15 18 21 24 27 30 33 36 39 42 45 48 51 54 57 60 63 66 69 72 75 78 81 84 87 90 93 96 99 102 105 108 111 114 117 120 123 126 129 132 135 138 141 144 147 150 153 156 159 162 165 168 171 174 177 180 183 186 189 192 195 198 201 204 207 210 213 216 219 222 225 228 231 234 237 240 243 246 249 252 255 258 261 264 267 270 273 276 279 282 285 288 291 294 297 300 303 306 309 312 315 318 321 324 327 330 333 336 339 342 345 348 351 354 357 360 363 366 369 372 375 378 381 384 </DataArray>
<DataArray  type="UInt8"  Name="types"  format="ascii">5 5 5 5 5 5 5 5 5 5 5 5 5 5 5 5 5 5 5 5 5 5 5 5 5 5 5 5 5 5 5 5 5 5 5 5 5 5 5 5 5 5 5 5 5 5 5 5 5 5 5 5 5 5 5 5 5 5 5 5 5 5 5 5 5 5 5 5 5 5 5 5 5 5 5 5 5 5 5 5 5 5 5 5 5 5 5 5 5 5 5 5 5 5 5 5 5 5 5 5 5 5 5 5 5 5 5 5 5 5 5 5 5 5 5 5 5 5 5 5 5 5 5 5 5 5 5 5 </DataArray>
</Cells>
<PointData  Scalars="f_127"> 
<DataArray  type="Float64"  Name="f_127"  format="ascii">1.3564820536924365e+00  1.3510853828231617e+00  1.3627854476260015e+00  1.3915822481009565e+00  1.4374757842480264e+00  1.5004660560672110e+00  1.5805530635585101e+00  1.6777368067219245e+00  1.7920172855574537e+00  1.0833138592168132e+00  1.0937317001805811e+00  1.1212462768164642e+00  1.1658575891244618e+00  1.2275656371045744e+00  1.3063704207568019e+00  1.4022719400811443e+00  1.5152701950776015e+00  1.6453651857461733e+00  7.9338629225886514e-01  8.1961864505567616e-01  8.6294773352460197e-01  9.2337355766564244e-01  1.0008961174787978e+00  1.0955154129640681e+00  1.2072314441214533e+00  1.3360442109509536e+00  1.4819537134525687e+00  4.8669935281859217e-01  5.2874621744844597e-01  5.8788981775041471e-01  6.6413015372449813e-01  7.5746722537069633e-01  8.6790103268900953e-01  9.9543157567943763e-01  1.1400588543419810e+00  1.3017828686766388e+00  1.6325304089599429e-01  2.2111441735889106e-01  2.9607252949390261e-01  3.8812737730102903e-01  4.9727896078027017e-01  6.2352727993162627e-01  7.6687233475509708e-01  9.2731412525068324e-01  1.1048526514183838e+00  -1.7695264350892848e-01  -1.0327675521298879e-01  -1.2504131244934321e-02  9.5365228395234980e-02  2.2033132370751907e-01  3.6239415469191805e-01  5.2155372134843181e-01  6.9781002367706080e-01  8.9116306167780446e-01  -5.3391770039617614e-01  -4.4442730026719357e-01  -3.3784016446609610e-01  -2.1415629299288394e-01  -7.3375685847556882e-02  8.4501656969885028e-02  2.5947573545944169e-01  4.5154654962111335e-01  6.6071409945489989e-01  -9.0764212976574865e-01  -8.0233721780372325e-01  -6.7993557016958306e-01  -5.4043718686332776e-01  -3.8384206788495784e-01  -2.1015021323447297e-01  -1.9361622911873422e-02  1.8852370308284111e-01  4.1350576474967060e-01  -1.2981259316176461e+00  -1.1770065078225778e+00  -1.0387903483553946e+00  -8.8347745321609650e-01  -7.1106782240468358e-01  -5.2156145592115588e-01  -3.1495835376551351e-01  -9.1258515937755968e-02  1.4953805756211624e-01  </DataArray> 
</PointData> 
</Piece>
</UnstructuredGrid>
</VTKFile>