<?xml version="1.0"?>
<VTKFile type="UnstructuredGrid"  version="0.1"  >
<UnstructuredGrid>
<Piece  NumberOfPoints="81" NumberOfCells="128">
<Points>
<DataArray  type="Float64"  NumberOfComponents="3"  format="ascii">0 0 0  0.125 0 0  0.25 0 0  0.375 0 0  0.5 0 0  0.625 0 0  0.75 0 0  0.875 0 0  1 0 0  0 0.125 0  0.125 0.125 0  0.25 0.125 0  0.375 0.125 0  0.5 0.125 0  0.625 0.125 0  0.75 0.125 0  0.875 0.125 0  1 0.125 0  0 0.25 0  0.125 0.25 0  0.25 0.25 0  0.375 0.25 0  0.5 0.25 0  0.625 0.25 0  0.75 0.25 0  0.875 0.25 0  1 0.25 0  0 0.375 0  0.125 0.375 0  0.25 0.375 0  0.375 0.375 0  0.5 0.375 0  0.625 0.375 0  0.75 0.375 0  0.875 0.375 0  1 0.375 0  0 0.5 0  0.125 0.5 0  0.25 0.5 0  0.375 0.5 0  0.5 0.5 0  0.625 0.5 0  0.75 0.5 0  0.875 0.5 0  1 0.5 0  0 0.625 0  0.125 0.625 0  0.25 0.625 0  0.375 0.625 0  0.5 0.625 0  0.625 0.625 0  0.75 0.625 0  0.875 0.625 0  1 0.625 0  0 0.75 0  0.125 0.75 0  0.25 0.75 0  0.375 0.75 0  0.5 0.75 0  0.625 0.75 0  0.75 0.75 0  0.875 0.75 0  1 0.75 0  0 0.875 0  0.125 0.875 0  0.25 0.875 0  0.375 0.875 0  0.5 0.875 0  0.625 0.875 0  0.75 0.875 0  0.875 0.875 0  1 0.875 0  0 1 0  0.125 1 0  0.25 1 0  0.375 1 0  0.5 1 0  0.625 1 0  0.75 1 0  0.875 1 0  1 1 0  </DataArray>
</Points>
<Cells>
<DataArray  type="UInt32"  Name="connectivity"  format="ascii">0 1 10  0 9 10  1 2 11  1 10 11  2 3 12  2 11 12  3 4 13  3 12 13  4 5 14  4 13 14  5 6 15  5 14 15  6 7 16  6 15 16  7 8 17  7 16 17  9 10 19  9 18 19  10 11 20  10 19 20  11 12 21  11 20 21  12 13 22  12 21 22  13 14 23  13 22 23  14 15 24  14 23 24  15 16 25  15 24 25  16 17 26  16 25 26  18 19 28  18 27 28  19 20 29  19 28 29  20 21 30  20 29 30  21 22 31  21 30 31  22 23 32  22 31 32  23 24 33  23 32 33  24 25 34  24 33 34  25 26 35  25 34 35  27 28 37  27 36 37  28 29 38  28 37 38  29 30 39  29 38 39  30 31 40  30 39 40  31 32 41  31 40 41  32 33 42  32 41 42  33 34 43  33 42 43  34 35 44  34 43 44  36 37 46  36 45 46  37 38 47  37 46 47  38 39 48  38 47 48  39 40 49  39 48 49  40 41 50  40 49 50  41 42 51  41 50 51  42 43 52  42 51 52  43 44 53  43 52 53  45 46 55  45 54 55  46 47 56  46 55 56  47 48 57  47 56 57  48 49 58  48 57 58  49 50 59  49 58 59  50 51 60  50 59 60  51 52 61  51 60 61  52 53 62  52 61 62  54 55 64  54 63 64  55 56 65  55 64 65  56 57 66  56 65 66  57 58 67  57 66 67  58 59 68  58 67 68  59 60 69  59 68 69  60 61 70  60 69 70  61 62 71  61 70 71  63 64 73  63 72 73  64 65 74  64 73 74  65 66 75  65 74 75  66 67 76  66 75 76  67 68 77  67 76 77  68 69 78  68 77 78  69 70 79  69 78 79  70 71 80  70 79 80  </DataArray>
<DataArray  type="UInt32"  Name="offsets"  format="ascii">3 6 9 12 15 18 21 24 27 30 33 36 39 42 45 48 51 54 57 60 63 66 69 72 75 78 81 84 87 90 93 96 99 102 105 108 111 114 117 120 123 126 129 132 135 138 141 144 147 150 153 156 159 162 165 168 171 174 177 180 183 186 189 192 195 198 201 204 207 210 213 216 219 222 225 228 231 234 237 240 243 246 249 252 255 258 261 264 267 270 273 276 279 282 285 288 291 294 297 300 303 306 309 312 315 318 321 324 327 330 333 336 339 342 345 348 351 354 357 360 363 366 369 372 375 378 381 384 </DataArray>
<DataArray  type="UInt8"  Name="types"  format="ascii">5 5 5 5 5 5 5 5 5 5 5 5 5 5 5 5 5 5 5 5 5 5 5 5 5 5 5 5 5 5 5 5 5 5 5 5 5 5 5 5 5 5 5 5 5 5 5 5 5 5 5 5 5 5 5 5 5 5 5 5 5 5 5 5 5 5 5 5 5 5 5 5 5 5 5 5 5 5 5 5 5 5 5 5 5 5 5 5 5 5 5 5 5 5 5 5 5 5 5 5 5 5 5 5 5 5 5 5 5 5 5 5 5 5 5 5 5 5 5 5 5 5 5 5 5 5 5 5 </DataArray>
</Cells>
<PointData  Scalars="f_42"> 
<DataArray  type="Float64"  Name="f_42"  format="ascii">1.5055265864765559e+00  1.5838357039901698e+00  1.6498849524636485e+00  1.7036743318969918e+00  1.7452038422901994e+00  1.7744734836432718e+00  1.7914832559562088e+00  1.7962331592290099e+00  1.7887231934616756e+00  1.4332343376947823e+00  1.5203563934203106e+00  1.5952185801057039e+00  1.6578208977509616e+00  1.7081633463560832e+00  1.7462459259210701e+00  1.7720686364459213e+00  1.7856314779306373e+00  1.7869344503752176e+00  1.4008908273851703e+00  1.4968258213226131e+00  1.5805009462199207e+00  1.6519162020770928e+00  1.7110715888941288e+00  1.7579671066710301e+00  1.7926027554077955e+00  1.8149785351044265e+00  1.8250944457609215e+00  1.4084960555477202e+00  1.5132439876970774e+00  1.6057320508062991e+00  1.6859602448753856e+00  1.7539285699043363e+00  1.8096370258931518e+00  1.8530856128418318e+00  1.8842743307503771e+00  1.9032031796187874e+00  1.4560500221824313e+00  1.5696108925437029e+00  1.6709118938648393e+00  1.7599530261458407e+00  1.8367342893867060e+00  1.9012556835874357e+00  1.9535172087480301e+00  1.9935188648684901e+00  2.0212606519488143e+00  1.5435527272893046e+00  1.6659265358624906e+00  1.7760404753955414e+00  1.8738945458884568e+00  1.9594887473412366e+00  2.0328230797538818e+00  2.0938975431263906e+00  2.1427121374587643e+00  2.1792668627510037e+00  1.6710041708683394e+00  1.8021909176534396e+00  1.9211177953984049e+00  2.0277848041032351e+00  2.1221919437679295e+00  2.2043392143924891e+00  2.2742266159769127e+00  2.3318541485212010e+00  2.3772218120253541e+00  1.8384043529195360e+00  1.9784040379165511e+00  2.1061438538734305e+00  2.2216238007901756e+00  2.3248438786667842e+00  2.4158040875032580e+00  2.4945044272995962e+00  2.5609448980557987e+00  2.6151254997718665e+00  2.0457532734428940e+00  2.1945658966518238e+00  2.3311186508206183e+00  2.4554115359492776e+00  2.5674445520378009e+00  2.6672176990861889e+00  2.7547309770944421e+00  2.8299843860625589e+00  2.8929779259905404e+00  </DataArray> 
</PointData> 
</Piece>
</UnstructuredGrid>
</VTKFile>