<?xml version="1.0"?>
<VTKFile type="UnstructuredGrid"  version="0.1"  >
<UnstructuredGrid>
<Piece  NumberOfPoints="81" NumberOfCells="128">
<Points>
<DataArray  type="Float64"  NumberOfComponents="3"  format="ascii">0 0 0  0.125 0 0  0.25 0 0  0.375 0 0  0.5 0 0  0.625 0 0  0.75 0 0  0.875 0 0  1 0 0  0 0.125 0  0.125 0.125 0  0.25 0.125 0  0.375 0.125 0  0.5 0.125 0  0.625 0.125 0  0.75 0.125 0  0.875 0.125 0  1 0.125 0  0 0.25 0  0.125 0.25 0  0.25 0.25 0  0.375 0.25 0  0.5 0.25 0  0.625 0.25 0  0.75 0.25 0  0.875 0.25 0  1 0.25 0  0 0.375 0  0.125 0.375 0  0.25 0.375 0  0.375 0.375 0  0.5 0.375 0  0.625 0.375 0  0.75 0.375 0  0.875 0.375 0  1 0.375 0  0 0.5 0  0.125 0.5 0  0.25 0.5 0  0.375 0.5 0  0.5 0.5 0  0.625 0.5 0  0.75 0.5 0  0.875 0.5 0  1 0.5 0  0 0.625 0  0.125 0.625 0  0.25 0.625 0  0.375 0.625 0  0.5 0.625 0  0.625 0.625 0  0.75 0.625 0  0.875 0.625 0  1 0.625 0  0 0.75 0  0.125 0.75 0  0.25 0.75 0  0.375 0.75 0  0.5 0.75 0  0.625 0.75 0  0.75 0.75 0  0.875 0.75 0  1 0.75 0  0 0.875 0  0.125 0.875 0  0.25 0.875 0  0.375 0.875 0  0.5 0.875 0  0.625 0.875 0  0.75 0.875 0  0.875 0.875 0  1 0.875 0  0 1 0  0.125 1 0  0.25 1 0  0.375 1 0  0.5 1 0  0.625 1 0  0.75 1 0  0.875 1 0  1 1 0  </DataArray>
</Points>
<Cells>
<DataArray  type="UInt32"  Name="connectivity"  format="ascii">0 1 10  0 9 10  1 2 11  1 10 11  2 3 12  2 11 12  3 4 13  3 12 13  4 5 14  4 13 14  5 6 15  5 14 15  6 7 16  6 15 16  7 8 17  7 16 17  9 10 19  9 18 19  10 11 20  10 19 20  11 12 21  11 20 21  12 13 22  12 21 22  13 14 23  13 22 23  14 15 24  14 23 24  15 16 25  15 24 25  16 17 26  16 25 26  18 19 28  18 27 28  19 20 29  19 28 29  20 21 30  20 29 30  21 22 31  21 30 31  22 23 32  22 31 32  23 24 33  23 32 33  24 25 34  24 33 34  25 26 35  25 34 35  27 28 37  27 36 37  28 29 38  28 37 38  29 30 39  29 38 39  30 31 40  30 39 40  31 32 41  31 40 41  32 33 42  32 41 42  33 34 43  33 42 43  34 35 44  34 43 44  36 37 46  36 45 46  37 38 47  37 46 47  38 39 48  38 47 48  39 40 49  39 48 49  40 41 50  40 49 50  41 42 51  41 50 51  42 43 52  42 51 52  43 44 53  43 52 53  45 46 55  45 54 55  46 47 56  46 55 56  47 48 57  47 56 57  48 49 58  48 57 58  49 50 59  49 58 59  50 51 60  50 59 60  51 52 61  51 60 61  52 53 62  52 61 62  54 55 64  54 63 64  55 56 65  55 64 65  56 57 66  56 65 66  57 58 67  57 66 67  58 59 68  58 67 68  59 60 69  59 68 69  60 61 70  60 69 70  61 62 71  61 70 71  63 64 73  63 72 73  64 65 74  64 73 74  65 66 75  65 74 75  66 67 76  66 75 76  67 68 77  67 76 77  68 69 78  68 77 78  69 70 79  69 78 79  70 71 80  70 79 80  </DataArray>
<DataArray  type="UInt32"  Name="offsets"  format="ascii">3 6 9 12 15 18 21 24 27 30 33 36 39 42 45 48 51 54 57 60 63 66 69 72 75 78 81 84 87 90 93 96 99 102 105 108 111 114 117 120 123 126 129 132 135 138 141 144 147 150 153 156 159 162 165 168 171 174 177 180 183 186 189 192 195 198 201 204 207 210 213 216 219 222 225 228 231 234 237 240 243 246 249 252 255 258 261 264 267 270 273 276 279 282 285 288 291 294 297 300 303 306 309 312 315 318 321 324 327 330 333 336 339 342 345 348 351 354 357 360 363 366 369 372 375 378 381 384 </DataArray>
<DataArray  type="UInt8"  Name="types"  format="ascii">5 5 5 5 5 5 5 5 5 5 5 5 5 5 5 5 5 5 5 5 5 5 5 5 5 5 5 5 5 5 5 5 5 5 5 5 5 5 5 5 5 5 5 5 5 5 5 5 5 5 5 5 5 5 5 5 5 5 5 5 5 5 5 5 5 5 5 5 5 5 5 5 5 5 5 5 5 5 5 5 5 5 5 5 5 5 5 5 5 5 5 5 5 5 5 5 5 5 5 5 5 5 5 5 5 5 5 5 5 5 5 5 5 5 5 5 5 5 5 5 5 5 5 5 5 5 5 5 </DataArray>
</Cells>
<PointData  Scalars="f_76"> 
<DataArray  type="Float64"  Name="f_76"  format="ascii">9.5448258214549808e-01  1.0839805955672710e+00  1.2422342856203923e+00  1.4292436523048617e+00  1.6450086956206798e+00  1.8895294155678455e+00  2.1628058121463600e+00  2.4648378853562227e+00  2.7956256351974336e+00  8.0062892166492927e-01  9.0289438857921189e-01  1.0339155321248428e+00  1.1936923523018219e+00  1.3822248491101492e+00  1.5995130225498244e+00  1.8455568726208489e+00  2.1203563993232213e+00  2.4239116026569421e+00  6.6194057795616834e-01  7.3697349836296033e-01  8.4076209540110114e-01  9.7330636907058987e-01  1.1346063193714269e+00  1.3246619463036120e+00  1.5434732498671457e+00  1.7910402300620283e+00  2.0673628868882590e+00  5.3841755101921529e-01  5.8621792491851699e-01  6.6277397544916727e-01  7.6808570261116582e-01  9.0215310640451252e-01  1.0649761868292076e+00  1.2565549438852508e+00  1.4768893775726433e+00  1.7259794878913834e+00  4.3005984085407001e-01  4.5062766824588146e-01  4.9995117226904146e-01  5.7803035292354976e-01  6.8486521020940616e-01  8.2045574412661093e-01  9.8480195467516407e-01  1.1779038418550656e+00  1.3997614056663155e+00  3.3686744746073261e-01  3.3020272834505388e-01  3.5229368586072340e-01  4.0314032000774136e-01  4.8274263078610752e-01  5.9110061819582205e-01  7.2821428223688489e-01  8.9408362290929622e-01  1.0887086402130557e+00  2.5884037083920297e-01  2.2494310521603400e-01  2.1980151622421326e-01  2.4341560386374089e-01  2.9578536813461676e-01  3.7691080903684099e-01  4.8679192657041348e-01  6.2542872073533440e-01  7.9282119153160346e-01  1.9597861098948127e-01  1.3484879885882198e-01  1.0247466335951100e-01  9.8856204491548250e-02  1.2399342225493389e-01  1.7788631664966773e-01  2.6053488767574989e-01  3.7193913533318052e-01  5.1209905962195945e-01  1.4828216791156734e-01  5.9919809273417834e-02  3.1312726661664181e-04  -3.0537878108836569e-02  -3.2633206852941021e-02  -5.9728589656976583e-03  4.9443165552894186e-02  1.3361486670283451e-01  2.4654224448412287e-01  </DataArray> 
</PointData> 
</Piece>
</UnstructuredGrid>
</VTKFile>